174
Lattice="10.441058335 -0.047597471 1.175180093 0.0 -12.337429535 0.188350465 0.0 0.0 -16.81923202" Properties=species:S:1:pos:R:3:forces:R:3 perovskite_index=new_375 config_type=new_375 virial="5.084350688017933 -6.212066797108901 2.404290636399953 -6.212066797108901 4.9603606047474935 7.051288584409971 2.404290636399953 7.051288584409971 3.8126173047607326" energy=-877.36988677 stress="-0.002346713808695217 0.0028672182207391253 -0.0011097153565455399 0.0028672182207391253 -0.0022894854115199934 -0.00325456627709144 -0.0011097153565455399 -0.00325456627709144 -0.0017597373244606516" free_energy=-877.36988677 pbc="T T T"
H        6.50176000      -2.02092000      -8.08834000      -0.68961700       0.16741600      -0.12093000
H        5.74899000     -10.20587000       0.28842000       0.75215600       0.14761300       0.09931700
H        1.21905000     -10.02509000     -10.80454000      -1.30433300      -0.11944200      -0.48041700
H        0.71043000      -2.14601000      -3.24913000       0.60020600      -0.34232900      -0.03067300
H        1.37473000      -9.72539000     -13.19000000      -0.58378200      -0.32428000      -1.07411500
H        1.00404000      -3.30064000      -5.34091000       0.11640400      -0.57871300       1.22160100
H        3.08916000      -9.35634000     -13.03745000       1.17064400      -0.35960600      -0.27952900
H        2.47419000      -3.94904000      -4.72433000       0.86184700      -0.33561700      -0.10595900
H        5.61640000      -5.72490000      -8.73462000      -0.03559800       0.66825200       0.54722400
H        5.06428000      -6.65432000      -1.17251000      -0.57343800      -1.08292500       0.67302700
H        4.23069000      -5.04707000      -8.14797000       0.33679000       0.53984500      -0.80343700
H        3.56650000      -7.17618000      -0.44463000       0.14359600       0.14156100      -0.39895400
H        4.08083000      -3.07044000      -6.65976000       0.65693800       0.07515400      -0.39832500
H        3.39556000      -8.74095000     -15.42810000       0.42935200      -0.15083700       0.11494800
H        5.55808000      -2.59536000      -5.84109000       0.25419300      -0.07956100      -0.58953500
H        4.94560000      -8.98113000     -14.51106000      -0.01723800      -0.16333200       0.41222500
H        2.78691000      -7.59393000      -9.16529000       0.66934200       0.30360800       1.15807100
H        2.14300000      -4.43371000      -0.67287000      -1.05202200       0.46959200      -0.37228600
H        1.30449000      -8.34241000      -9.87168000       1.08860200       0.73186700       0.34458000
H        0.50286000      -3.74590000      -1.32590000      -0.17217600      -0.11485300       0.42587600
H        4.92320000      -4.29628000     -10.44119000       0.16795900       0.52368200      -0.06350600
H        4.00932000      -8.49422000      -2.40215000      -0.51277600       0.23538600      -1.11763500
H        6.46861000      -3.67203000      -9.67312000       0.03008200      -0.14608300      -0.42629300
H        5.72517000      -8.85274000      -1.76380000      -1.79944000       0.23444200      -0.04901700
H        1.82559000      -7.23852000     -13.24755000       0.67837000       0.09558100      -0.59764400
H        1.04515000      -5.79650000      -4.39780000       0.46594100      -1.90513700      -1.88538100
H        0.62685000      -7.78850000     -12.23447000       0.29519000      -0.02994600       0.79213000
H       10.22194000      -4.95081000      -2.43884000      -1.04753800       0.21168800      -0.17124800
H        1.83697000      -6.33202000     -10.87765000       0.56744700      -0.34483000      -0.47306900
H        1.02189000      -6.09446000      -2.00637000      -0.00412600       0.35133100       0.07695900
H        3.43697000      -6.77928000     -11.40338000      -0.10401100      -0.32130300      -0.37245500
H        2.46969000      -5.56943000      -2.64830000      -0.19136700       0.03324700      -0.14486700
H        4.71071000      -1.64535000      -9.91403000       0.31122100      -0.70305000       0.08602100
H        4.33300000     -10.85363000      -1.32299000      -0.38609300       0.25696400      -0.53179400
H        3.73950000      -2.73420000      -8.83654000      -0.30929600       0.53159900      -0.34372300
H        3.00295000      -9.85134000      -0.58556000      -0.49447200      -0.18869300      -0.16475800
H        2.97262000     -10.03806000      -9.47643000       0.44033100      -0.26832700       0.62765400
H        2.19636000      -2.04956000      -1.58727000      -0.43863400       2.14096500       2.18447900
H        4.06391000      -9.38801000     -10.77525000      -0.66277300      -0.11600500       0.26186300
H        3.46389000      -3.05347000      -2.23387000      -1.63607800      -0.13367400      -0.15142300
H        5.58526000      -0.48399000      -6.35619000       0.16575800      -0.25420300      -0.31478800
H        5.14874000     -11.29334000     -14.55001000       0.08284400      -0.08794200      -0.51724500
H        4.07486000      -0.66453000      -7.26623000      -0.56045100       0.26385400       0.71116300
H        3.48033000     -11.22950000     -14.96857000      -1.12957800       0.14069600       0.13033200
H        6.94363000      -4.11716000      -7.28718000      -0.63931800      -0.16984700      -0.38001000
H        6.25165000      -7.78190000       0.57608000      -0.86035600      -0.11563700       0.21251900
H        5.75619000      -5.03374000      -6.45469000      -0.33833700      -0.46698800       0.83726600
H        4.98738000      -6.80402000     -15.54548000      -0.37612600       1.20230800       0.95962800
H        3.53677000     -11.63311000     -11.72659000      -0.27708600      -0.04462600       0.17402800
H        3.47565000      -1.69450000      -4.25495000       0.39420800      -0.38120600      -0.33329900
H        1.94511000     -11.72028000     -12.54236000      -0.09947500      -0.51414300      -0.47496300
H        1.97618000      -1.07125000      -5.12407000       0.86362300      -0.46183900       1.67952100
H       10.10437000     -10.28199000      -5.86727000       0.47460200       0.61091800       0.44569900
H        9.67400000      -2.54998000     -14.08699000       0.48492900      -0.32469200       0.15800400
H        2.22467000     -12.13609000      -9.43934000       0.10475400      -0.38239900      -0.86966900
H        3.49754000     -11.92399000      -3.32996000      -1.47070500      -0.38442300       0.69244700
H        2.20619000      -1.15446000     -10.85662000      -0.47975500       0.48354300       0.32524100
H        1.64313000     -11.91636000      -3.18375000      -0.12072800       0.79106500       0.52935600
H        0.82288000      -0.07156000     -10.49778000      -2.61638600      -0.00132700      -0.33598600
H        2.63012000      -0.45716000      -2.12252000       0.09942200       0.52144500      -0.08480700
H        5.05864000     -10.91220000      -7.54444000       0.39022700       0.34289600       0.00462600
H        4.49133000      -1.09156000     -15.58511000      -0.50424100       0.12396400      -0.76169700
H        4.67208000     -11.89091000      -8.92306000       0.07935300       0.13500000      -0.36895800
H        3.57352000      -0.26823000      -0.17024000       0.43688500      -0.88270800       0.02739400
H        6.44635000     -11.74664000      -8.53489000      -1.56661700       0.21474700       0.77720500
H        5.40677000      -0.52775000      -0.15867000      -0.17783900       0.48225200      -0.03905900
H        7.88730000     -10.07332000      -3.84720000      -0.55409400      -0.06828000      -0.35749000
H        7.95964000      -1.93404000     -11.81734000      -0.42334800       0.17216900       0.39267100
H        9.44768000      -9.30450000      -3.55183000      -0.35547000      -0.52905400      -1.08464500
H        9.55118000      -2.59392000     -11.53778000       0.66423600      -0.58775700       0.26624500
H        8.59185000     -11.16249000      -7.25945000      -0.18415700      -0.59643200       0.36262700
H        7.56508000      -2.42550000     -15.26560000       0.69796300       0.34840600      -0.31541900
H        7.33956000     -10.90264000      -6.01722000      -0.14818700      -0.43108400      -0.11575100
H        6.80331000      -1.85360000     -13.91933000       0.27084800       0.11152900       0.82817100
H        7.94509000      -0.90114000      -6.04041000      -0.62894100      -0.43802500      -0.27584800
H        7.77994000     -12.12670000     -14.92168000      -0.15115000      -0.33938300      -0.45122300
H        9.62146000      -0.58023000      -6.13904000       0.82282200      -0.19066700      -0.24124000
H        9.41470000      -0.59495000     -15.06059000      -0.79990900       0.02916400      -0.36527600
H        0.20297000     -11.47249000      -5.12369000      -0.58672200       0.02103200       0.38771400
H        0.09697000      -0.76463000     -14.14956000       0.69785600       0.33523900       0.19425300
H        9.39812000     -11.44032000      -2.52470000       0.76642000       0.27315200      -0.03616800
H        9.67988000      -0.18227000     -11.47431000       0.48332900       0.63428000       0.79213900
H        7.74634000      -0.23219000      -3.93232000       0.53472000       0.00411300       0.40930900
H        7.83533000     -11.90239000     -12.60519000       0.56570700       0.38025700      -0.10751600
H        9.18823000      -1.09616000      -3.97870000      -0.27358200       0.12875600      -0.07380900
H        9.19211000     -11.27889000     -13.46758000       0.32733300       0.16175000       0.67617600
H        7.94442000      -7.36458000      -4.64145000       0.22821000      -0.33048000       0.05414900
H        8.24730000      -4.34866000     -11.35401000       0.29761200      -0.50243000      -0.50574400
H        6.79321000      -8.33309000      -5.63766000      -0.22473000      -0.04314600       0.34348700
H        6.77434000      -4.00779000     -12.18367000       0.22615700      -0.35329600      -0.34220100
H        7.64947000      -6.99249000      -6.33108000       0.12356200       0.00866100       0.05513400
H        7.37032000      -5.64628000     -12.29426000       0.53205500       0.34310200      -0.37648200
H        9.78292000      -8.15504000      -6.36699000      -0.90316800      -0.76304100       0.36204400
H        9.46250000      -4.68721000     -13.61584000      -1.11840600       0.67504700      -0.04958200
H        8.48228000      -8.92431000      -7.26537000      -0.04764000      -0.25098200      -0.21751400
H        7.91441000      -4.38326000     -14.47583000      -0.28466500       0.05174000      -0.34141200
Pb       3.44755000      -8.11966000      -6.03881000       0.18697200      -0.18730000       0.87853400
Pb       2.74144000      -3.94377000     -13.76421000       0.39964800      -0.28752500      -0.05513100
Pb       7.62556000      -8.09271000     -10.63714000      -0.06458100      -0.45189000      -0.16351300
Pb       6.67490000      -3.95731000      -1.92012000       0.11577200       0.32135400      -0.66344500
Pb      10.12793000      -9.05511000       0.45349000      -0.12642400       0.00604100       0.28844500
Pb      10.06058000      -3.80625000      -7.36357000       0.37525300       0.11300100       0.28064700
C        2.13228000      -9.27907000     -12.58681000      -1.17429000       0.14324700       1.24298800
C        1.49362000      -3.68100000      -4.37778000      -0.56549600      -0.01004700      -2.09314400
C        5.19247000      -2.96571000      -6.82867000      -1.13127900      -0.58709200       1.57785200
C        4.49958000      -8.87582000     -15.49779000      -0.21998100       0.24682000       0.72434400
C        2.41884000      -8.10807000     -10.00439000      -2.02595100      -0.41697200      -1.80496500
C        1.51828000      -4.05665000      -1.53621000       2.06441800      -1.21920800       0.19210300
C        5.38104000      -3.79098000      -9.57305000       0.13850800      -0.47078700       0.10500500
C        4.58842000      -8.70528000      -1.54271000       3.11254900       0.13007200       1.76290700
C        1.72204000      -7.85590000     -12.36596000      -0.12781800       1.53759100       0.78513200
C        0.82314000      -4.97634000      -3.82192000       0.94941100       2.91049000       2.57717400
C        4.75421000      -2.47689000      -9.18188000      -0.89867800       0.42370300       1.04802600
C        4.05880000      -9.92159000      -0.81190000       0.59562700      -0.62114400       0.70471100
C        3.02214000      -9.42802000     -10.36451000       1.33792500       0.09157700       0.15845700
C        2.32721000      -2.90260000      -2.12316000       0.49088800      -2.41887600      -3.07859500
C        5.15341000      -0.57846000      -7.36804000      -1.44333000      -1.65529200       0.33053700
C        4.43867000     -11.38994000     -15.40339000       1.82094500       1.64181000      -0.52625500
C        5.84014000      -4.27032000      -7.19941000       1.23522900       0.39250200       0.20461100
C        5.13031000      -7.67870000     -16.11511000       2.26040900      -0.57114800      -1.17907500
C        2.44350000     -11.56688000     -11.59455000      -1.14023100       0.64809600       1.30229900
C        2.46950000      -1.32862000      -4.09291000      -0.68770000      -0.45756200      -1.65027800
C        1.84146000      -0.12227000     -10.64292000       3.93129600       0.36633200      -0.04317700
C        2.54614000      -0.14089000      -3.16900000       0.89037800       0.16444500      -0.99158300
C        5.37335000     -11.80152000      -8.08958000       1.81531700       0.41376900      -1.89847700
C        4.50199000      -0.31059000       0.43307000      -0.28623100      -0.23394600       0.70289800
C        8.93201000     -10.13870000      -4.13245000       2.07091000       1.25000600       1.36955700
C        8.96156000      -2.01346000     -12.21482000      -0.36170200       1.00693800      -1.06569100
C        8.38534000     -11.22389000      -6.16760000      -1.87843200       2.57141200      -1.80916300
C        7.82146000      -1.87361000     -14.34465000      -1.69121000       0.02062600      -0.88257100
C        8.69347000      -0.18017000      -5.77763000       0.61351300      -1.22383700       1.00856900
C        8.40378000      -0.51312000     -14.58270000       1.24424700       0.16853700       0.03128800
C        9.58075000     -11.41584000      -3.61459000      -0.49231800       0.63396800       0.68919300
C        9.61261000      -0.62873000     -12.44181000      -0.67976500      -1.52717900       0.00568100
C        7.75522000      -7.82274000      -5.61897000      -0.26478800      -0.06275200      -0.19880200
C        7.71801000      -4.59916000     -12.29797000      -0.81433400       1.43099400       0.40070700
C        8.79552000      -8.72105000      -6.24419000       1.32053900       1.43307200      -0.48482600
C        8.45324000      -4.13850000     -13.56911000       1.64861600      -1.77809100       1.44720400
Br       9.60077000      -9.95511000      -9.47187000      -0.88260500      -0.08377200      -0.16731000
Br       9.23077000      -2.49319000      -1.17758000      -0.75584900       0.40967100       0.03827900
Br       1.61456000      -8.83597000      -3.53062000      -0.27101500       0.30688100       0.09849200
Br       0.88697000      -3.98929000     -11.61446000       0.52219200       0.20238000      -0.24406400
Br       5.54992000      -7.95936000      -8.37049000       0.20946800      -0.06133800      -0.28525800
Br       4.87129000      -3.68915000       0.26984000       0.17606400      -0.44345700       0.18824200
Br       5.09503000     -10.19967000      -4.83348000      -0.05569600       0.24932900       0.12507200
Br       4.23656000      -1.94162000     -12.57116000       0.31620600      -0.14066200      -0.28358500
Br       8.91810000      -8.26264000     -13.70834000      -0.21536500      -0.11076900       0.09308000
Br       8.30574000      -4.35689000      -5.12344000       0.44252800       0.41037300       0.21570700
Br       0.98170000     -11.01539000     -15.89243000      -0.14239600       0.30632000      -0.32423400
Br       1.36645000      -1.64720000      -7.37441000       0.01195700      -0.23046600      -0.28282900
Br       1.58688000      -6.86340000     -16.35992000      -0.00151200       0.03304400       0.05897100
Br       1.99129000      -5.76770000      -7.74597000       0.17672700       0.42670600       0.24270600
Br       7.83978000     -10.80256000      -0.49033000       0.04223700       0.20276000       0.11018900
Br       8.60362000      -1.64490000      -8.73586000      -0.25400900      -0.11682900      -0.19542400
Br       5.00278000      -6.52191000     -12.52601000       0.48262500       0.02393100      -0.24955400
Br       4.43574000      -5.74592000      -3.60683000       0.18372700       0.11772100      -0.05260400
Br       7.72173000      -6.59939000      -1.80703000       0.29399900      -0.28520100       0.37671400
Br       9.25043000      -6.08796000      -9.06048000      -0.74026200      -0.75238100      -0.06672100
Br       6.16358000     -10.85385000     -11.73560000       0.12448300       0.19451100       0.01806300
Br       5.92598000      -1.17106000      -3.34132000       0.06898800      -0.16141700       0.00430100
Br       2.18636000     -10.34870000      -7.01484000      -0.63747300      -0.22374100      -0.34154100
Br       1.53079000      -2.21165000     -15.57240000      -0.30518800       0.00390100      -0.00719000
N        5.43120000      -2.00483000      -7.90660000       2.07862200       1.01343700       0.07339100
N        4.75304000     -10.08189000       0.53190000      -0.73693500      -1.02907500       0.40976100
N        2.10252000     -10.08059000     -11.31304000       2.65783600      -0.36686400      -0.98830000
N        1.69308000      -2.49488000      -3.50867000      -0.37706300      -0.02176600       1.76525700
N        5.23805000      -4.76567000      -8.42895000      -0.75231000      -1.27763400      -0.70670300
N        4.57590000      -7.45068000      -0.63194000      -0.66841300       0.22604300      -1.56619000
N        2.45922000      -7.13753000     -11.17211000      -2.88448500      -1.04400200       0.38718800
N        1.46454000      -5.27801000      -2.46775000       0.37460100       0.82966100      -0.30633600
N        9.12172000     -10.04767000      -5.62183000       0.44990100      -0.63485400       1.18380700
N        8.77765000      -2.67392000     -13.56648000      -0.00188500      -0.00700200       0.09442100
N        8.77516000      -0.19168000      -4.27794000      -0.58436600      -1.19402900      -1.09460700
N        8.76170000     -12.15199000     -13.10699000      -1.82523100       0.19653500      -0.48111800
192
Lattice="12.446893696 0.005890634 1.362697678 0.0 -19.956303257 -0.001568131 0.0 0.0 -12.725904873" Properties=species:S:1:pos:R:3:forces:R:3 perovskite_index=new_414 config_type=new_414 virial="0.29468203656023995 -4.861602524828956 -3.2240022035533116 -4.861602524828956 0.269941056790118 -7.161448242407561 -3.2240022035533116 -7.161448242407561 5.5837274056632715" energy=-1000.59577383 stress="-9.322318030419234e-05 0.0015379765052180195 0.0010199187647514576 0.0015379765052180195 -8.539632786033473e-05 0.002265536741003979 0.0010199187647514576 0.002265536741003979 -0.0017664219807344726" free_energy=-1000.59577383 pbc="T T T"
H       10.14356000      -6.31307000      -9.68372000       0.21149300      -0.00728300       0.43518800
H        1.81013000     -16.13943000      -8.31847000      -0.34268400      -0.95730400       1.20085100
H        1.68104000     -13.44592000      -1.70719000       0.18659000       0.10207700       0.33044300
H       10.03728000      -3.75205000      -3.06793000      -0.12868200       0.12224300      -0.11397200
H       11.06506000      -3.68091000      -6.35010000      -0.27761900      -0.28295100      -0.21357200
H        1.85849000     -13.87297000     -11.79501000      -0.09431500       0.34693400      -0.47322300
H        1.21677000     -15.47292000      -5.39386000       0.12562300       0.08385100       0.43060000
H       10.47132000      -6.48325000       0.14175000      -0.72562600       0.28468200      -0.73929500
H        8.75848000      -2.91044000      -7.57659000      -1.22857300       1.04395100       0.25636400
H        4.38665000     -13.69144000     -10.47114000      -0.08538700       0.48969000      -0.65972500
H        3.65836000     -16.18051000      -4.35434000       1.23323600      -1.01831700      -0.43911800
H        8.19148000      -7.15263000      -1.18936000      -0.60749300      -0.17159400      -0.20814000
H        8.02023000      -5.27240000     -10.60947000       0.02698800       0.22389200       1.24148000
H        3.87079000     -15.74661000      -7.33471000       0.21093900       0.84750400      -0.24287700
H        4.09280000     -13.72308000      -1.35520000      -0.12630700      -0.09857300      -0.01591200
H        8.02879000      -4.52632000      -4.24416000      -0.46753000      -0.99623200       1.09880700
H        7.79272000      -3.62494000     -10.19825000       0.36883200      -0.07832400       0.58904700
H        4.20870000     -13.93399000      -7.58302000       0.37945500      -0.18980900       0.42231700
H        4.03346000     -15.46101000      -1.13188000       0.06892100      -1.17563400       1.27628600
H        7.54206000      -6.22304000      -3.90466000      -0.41517000      -0.55758100      -0.46579800
H        6.48225000      -4.37821000      -8.04929000      -0.06205400       0.37674300       1.38478200
H        6.25670000     -14.57115000      -9.01725000      -0.48824000      -0.65433800       0.47664900
H        5.69937000     -15.76832000      -3.16876000      -0.37474000       1.31536400       0.55244600
H        6.05541000      -5.38012000      -1.94914000      -0.30784800      -0.09331700      -0.25450200
H        5.71569000      -4.46583000      -9.61279000       0.27674200      -0.09631600       0.01362200
H        6.43791000     -15.43548000      -7.38987000      -1.52233900       0.10746800      -1.81178500
H        6.27923000     -15.01223000      -1.65914000      -0.38552500       0.16918100      -0.34111800
H        5.62158000      -4.89685000      -3.68510000      -0.25912700       0.24398000       0.58216000
H        1.41179000     -10.88012000     -10.79417000       0.08378800      -0.69603700      -0.33218400
H       10.17236000      -0.46745000      -7.59920000       0.39776800      -0.35969900       0.24317300
H       10.33853000      -9.03706000      -1.30478000       0.42552200      -0.15866900       0.05472500
H        1.20864000     -18.55823000      -4.01754000       0.54393300       1.22422600      -1.55561400
H        2.69241000      -8.72208000      -7.34396000      -0.09937100      -0.11919600      -0.83482800
H       10.93773000     -18.54563000     -11.27222000      -0.06098700       0.01866000      -0.32559000
H       10.05196000     -11.14657000      -4.91132000       0.23875400       0.94184200       0.07328300
H        2.10751000      -1.16577000      -0.81290000       0.87944600      -0.79547700       0.86020400
H        0.05194000      -8.44868000      -7.71149000      -0.40740700       0.35299400       0.20674000
H        0.96505000     -18.95495000     -11.29230000      -0.13300200       0.41392300      -0.18549200
H        0.20661000     -11.19527000      -5.50932000       0.72129900       0.04382700      -0.12814300
H       11.90640000      -1.19213000       0.14474000      -0.25283600      -0.18859600      -0.27089500
H       11.71137000      -9.96075000      -9.75096000      -0.33129100       0.22786900       0.62164600
H        0.29292000      -0.66053000      -7.98250000      -0.48009200      -0.13365800       0.57999600
H        0.30295000      -9.32968000      -2.02305000      -0.12563300      -0.18479100      -0.74139500
H       11.42924000     -19.74592000      -3.36056000      -0.25913400       0.38839100       0.93809500
H       10.95239000      -8.88588000      -8.49726000       0.12225600      -0.04140600      -0.18734800
H        1.16580000     -19.10966000      -8.44729000      -0.54407200      -0.87418000      -0.38852500
H        1.00345000     -10.72542000      -2.80000000       0.45394700      -0.73362300       0.08112500
H       10.54348000      -0.53560000      -2.08805000      -0.75361700      -1.72335400       0.65581400
H       11.02302000     -11.78285000      -7.72755000       0.28014300      -0.27415500       0.28378700
H        1.34557000      -1.96491000      -9.87796000       0.22236700       0.76264700       0.22626900
H        1.18928000      -8.02653000      -4.09473000      -0.53686300       1.34567700      -0.77463800
H       10.77799000     -17.56006000      -2.41748000       0.48568600       1.08151000      -0.98222000
H        9.71621000     -10.57207000      -7.57432000       0.34857700      -0.02447900       0.18199500
H        2.23873000      -0.44849000     -10.29878000       0.59601600      -0.15975700       0.10850000
H        2.23550000      -9.46554000      -4.37822000      -0.16204900       0.64003200       0.20437700
H       10.25105000     -18.10210000      -0.92592000       0.15021000      -0.50535000       0.53645900
H       11.79766000      -5.80679000      -7.65398000      -0.41807200       0.34077800      -0.19649200
H        0.51022000     -15.41144000     -10.38912000       0.33242500       0.12524900       0.25344100
H        0.16913000     -13.91113000      -3.68272000       0.42140300      -0.24685300       0.08758800
H       11.38751000      -4.40690000      -0.89367000      -1.16655700      -0.68182200      -0.74468700
H        6.02138000      -6.96112000      -9.59724000       0.36634800       0.42310000      -0.92829400
H        5.78065000     -17.47865000      -8.45543000       0.52344200       0.80473500      -0.87516800
H        6.35434000     -12.94334000      -2.49332000      -0.10482300       0.79229800       0.14205600
H        6.88435000      -2.77030000      -3.08232000      -0.58515000       0.00577300       0.60749900
H        5.42606000      -6.49587000      -8.14914000       1.43188500       0.16814600      -0.42339200
H        6.68514000     -16.55201000      -9.69958000      -0.40493500      -0.99512900      -0.26480400
H        6.80305000     -13.86714000      -3.79404000      -0.54930900       0.61869700       0.16112800
H        5.37291000      -3.11718000      -2.28272000      -0.23859200       0.85926200       0.13447900
H        7.10573000      -6.80895000      -8.32895000       0.04148600      -0.25798200       0.30503100
H        4.93820000     -16.71263000      -9.65513000       0.39988500      -0.41141300      -0.88658300
H        5.25425000     -13.17055000      -3.79576000      -0.18975300       0.47754600       0.00040200
H        6.81672000      -3.29602000      -1.44970000       0.29132200       0.52271100       0.37174100
H        3.42859000     -10.39432000      -9.37771000      -0.86011500       0.76252500       0.65879800
H        9.19882000     -19.50469000      -9.70194000       0.22785500      -0.39593300       0.11860400
H        8.82246000      -9.83389000      -3.09010000       0.08644500       0.19991000       0.04736400
H        3.13392000     -19.59092000      -2.67743000      -1.08303300      -0.13673800       0.55744700
H        9.18872000     -10.87304000      -9.96351000       0.49803200      -1.19786800       1.20024600
H        3.20218000      -0.58233000      -7.94611000       0.23531700      -0.05475100       0.01239900
H        2.47568000      -8.90838000      -1.66015000      -0.64561600      -0.37057000       0.50992100
H        8.85269000     -19.42411000      -3.08877000       0.14710900       1.01575900      -0.35262300
H        9.12229000     -12.29382000      -8.86402000      -1.47119500      -1.06073800       0.36462500
H        3.40384000      -2.12869000      -8.77731000      -0.11866900       0.71628500       0.28375900
H        3.48225000      -8.67341000      -2.87356000      -0.44682300       0.65382800       0.35764900
H        8.31880000     -18.88328000      -1.68717000       0.21244200       0.45050600       0.04808500
H       10.33286000     -12.14307000     -10.01831000      -0.34179800       0.28515500       0.39347600
H        2.21816000      -1.92241000      -7.66569000      -0.05872200       0.15357000       0.27850800
H        2.45275000      -7.37620000      -2.43942000       0.14828300      -0.12645000       0.18512300
H        8.53495000     -17.71692000      -2.84810000      -0.14888100       0.44722600      -0.72696400
Pb       2.51916000      -5.67014000     -12.06064000      -0.45292600       0.47912800       0.25906400
Pb      10.50197000     -14.90917000      -5.54896000       0.08081400      -0.05858900      -0.07336000
Pb      10.36326000     -15.18547000       0.85598000      -0.58852100       0.89390800      -0.04851900
Pb       2.20523000      -4.64958000      -5.45401000       0.02124400      -0.65796200      -0.65705400
Pb       5.97898000      -0.07457000     -11.96761000      -0.08774200      -0.14157900       0.08209600
Pb       6.33078000      -9.94613000      -5.87975000      -0.19005900       0.17343400       0.17229400
Pb       6.43279000     -19.79944000      -5.44079000      -0.68937600       0.17094800      -0.25362500
Pb       6.30499000     -10.22493000     -12.01558000       0.08001100      -0.18054600      -0.11222100
C       10.08064000      -5.55475000      -8.89397000       0.00716700       0.57816000       0.25671200
C        2.16152000     -15.50202000      -9.06719000       0.24845500       0.73270500      -1.10109200
C        1.90161000     -14.13870000      -2.50436000       0.37841700       0.27138000      -1.33805900