80
Lattice="-10.334289068 -10.334289068 0.0 -10.334289068 0.0 -10.334289068 0.0 -10.334289068 -10.334289068" Properties=species:S:1:pos:R:3:forces:R:3 energy=-304.5336702 stress="-0.018525885108209416 0.0010503086726853829 0.00019228217164108554 0.0010503086726853829 -0.02017212058921588 -0.0004983845037017781 0.00019228217164108554 -0.0004983845037017781 -0.01938771268831137" magmom=-0.011025 free_energy=-304.5336702 virial="40.89317001125838 -2.318402109564512 -0.4244346485539044 -2.318402109564512 44.52699301135522 1.10011058158955 -0.4244346485539044 1.10011058158955 42.79552779592819" config_type=Au8Cl48Cs8Rb8Sc8 formula=CsRbAuScCl6 pbc="T T T"
Cl     -10.24917000     -10.36028000     -12.68410000       0.03128200      -0.05324700      -1.41595000
Cl     -10.40840000     -13.17615000     -15.46338000      -0.16131600       3.17533600       0.06223700
Cl     -10.35241000      -7.66379000     -15.51001000      -0.00288400       0.01251200      -0.15707100
Cl     -10.39300000     -10.37342000     -18.20402000       0.08168400       0.00495100       0.93402800
Cl     -15.58473000     -15.58044000     -18.08931000      -0.09357300       0.18564600      -1.30486000
Cl     -13.08195000     -10.42492000      -5.26928000       0.06709500       0.00548700       0.08731100
Cl      -7.62771000     -10.48159000      -5.17541000      -0.20478200       0.28874200      -0.08517600
Cl     -10.30765000     -13.10314000      -5.38362000      -0.07791300       0.10108500       0.36112600
Cl     -10.30720000      -7.70426000      -5.09403000       0.01767800       0.51563000      -0.09133300
Cl     -10.41423000     -10.47398000      -8.01645000       0.05649800       0.16721900       2.18246100
Cl     -10.33275000     -10.43519000      -2.55669000       0.10642400      -0.10160000       0.33011800
Cl     -13.09317000     -15.61534000     -10.33577000       0.98456800      -0.02500300      -0.06213900
Cl      -7.74605000     -15.51552000     -10.44739000       0.42598500       0.09895800       0.26498600
Cl      -7.61111000     -10.37686000     -15.56720000      -0.80247200       0.00231100       0.18830700
Cl     -10.33744000     -18.16367000     -10.49214000       0.08811800      -0.48726200       0.19232200
Cl     -10.28901000     -15.53782000     -12.93136000       0.04968400       0.04083200      -0.62285200
Cl     -10.34545000     -15.40223000      -7.76377000      -0.13817600      -0.32868000       0.50630900
Cl     -18.20707000     -10.29526000     -10.19096000       0.09964600      -0.13892300      -0.05980500
Cl     -12.82559000     -10.29716000     -10.38506000      -0.47808800       0.06102800      -0.02129600
Cl     -15.47808000     -12.99651000     -10.29547000       0.07788600      -0.01899600       0.03784400
Cl     -15.47654000      -7.67355000     -10.49898000      -0.03603800       0.14274200       0.35655900
Cl     -15.48098000     -10.47823000     -12.96889000       0.08826300       0.20848900      -0.47347900
Cl     -15.60253000     -10.18857000      -7.67754000       0.14353000      -0.25437400       0.12721400
Cl     -18.18675000     -15.63466000     -15.61829000      -0.63414100       0.10444500       0.21150100
Cl     -12.89187000     -15.41189000     -15.35133000       0.65741900      -0.03379900      -0.03738200
Cl     -15.38518000     -18.19531000     -15.56944000      -0.19201900      -1.15476000       0.38794900
Cl     -15.53890000     -12.70928000     -15.51744000       0.15848900      -0.26617100       0.02700400
Cl     -10.37860000     -12.70080000     -10.27457000       0.04047700      -0.68597300      -0.22926800
Cl     -13.14896000     -10.17253000     -15.63102000       1.88130200      -0.07765600       0.31816200
Cl     -15.50603000     -15.59811000     -12.75002000      -0.04175000       0.27462800      -0.48118800
Cl      -5.08506000     -13.01683000     -10.22202000      -0.09836100       0.11503700      -0.03478000
Cl      -5.14591000      -2.45165000      -5.22299000      -0.12407800      -1.21125200      -0.05612200
Cl      -5.18028000      -7.90604000      -5.12850000      -0.30490300       1.55227100       0.12827800
Cl      -7.89648000     -10.30988000     -10.24472000       0.18285300      -0.00290800      -0.01972300
Cl      -2.30156000     -10.33420000     -10.33439000      -1.23122600       0.05033400      -0.01025100
Cl     -10.35012000      -5.09352000      -7.66662000       0.09546800      -0.05655300       0.52268600
Cl      -2.67113000      -5.27550000      -5.14083000       0.63648500       0.17740200       0.00307700
Cl      -5.33375000      -7.56233000     -10.44898000       0.04992400      -1.05707600       0.24171700
Cl      -5.09743000     -10.56399000     -12.94886000      -0.11003500       0.16982000      -0.33795200
Cl      -5.06883000      -5.15930000      -8.03687000      -0.14166400      -0.06197200       3.48021300
Cl      -4.97789000     -10.25386000      -7.55541000      -0.31484400       0.17398300      -0.82754500
Cl      -5.18943000      -5.30018000      -2.28743000       0.07960000       0.32685900      -1.50661100
Cl     -10.22355000      -5.15180000     -13.05790000      -0.16566200       0.01700200       0.37770400
Cl     -10.44506000      -2.61336000     -10.34759000       0.20171400       0.27821200       0.01552600
Cl     -10.34174000      -7.97378000     -10.35941000       0.10871600       1.75451400      -0.01693500
Cl     -13.05658000      -5.14471000     -10.21109000      -0.08977100      -0.02935900      -0.03595400
Cl      -7.59812000      -5.10645000     -10.34036000      -0.53814200       0.01900300       0.15385400
Cl      -7.89350000      -5.09709000      -5.14547000       2.14594800      -0.08531800      -0.06485600
Sc     -10.14651000      -5.00648000      -5.14868000      -2.48781900      -3.29881100       0.10893500
Sc     -10.42525000      -5.19317000     -15.40790000       0.76062800       0.28267500      -1.21609800
Sc      -5.08247000      -5.17146000     -10.21946000      -1.15828700       0.38110900      -3.15193600
Sc      -5.12842000     -10.20624000      -5.11318000      -1.51146500      -1.91366600       0.12305000
Sc     -10.29014000      -0.05787000     -10.26103000       0.10209200       0.03544000      -1.16158000
Sc      -5.22617000      -0.11425000      -5.18018000       0.44883100       1.23525000      -0.08742700
Sc     -10.43774000     -10.26535000     -10.27734000       0.16863900      -1.27929700      -0.85354100
Sc      -5.24354000     -15.43561000     -10.31059000       0.03096000      -0.76124200       1.02245100
Rb     -13.03115000     -12.82033000     -13.01069000      -0.07277000      -0.18202000       0.10812700
Rb      -7.84933000      -2.55373000      -7.64592000       0.06866900       0.01258800      -0.31041600
Rb      -2.64750000      -2.50046000      -2.62065000       0.15070600       0.01538800       0.16444300
Rb      -2.49815000      -7.60588000      -7.67714000       0.00160700      -0.12911200      -0.26016300
Rb      -7.75075000      -7.73233000     -12.79640000       0.14302300       0.06891100      -0.01802300
Rb     -13.02638000      -7.78955000      -7.50419000       0.04905200       0.09463300      -0.15561300
Rb      -7.79141000     -12.95205000      -7.75818000       0.03460300      -0.00447600       0.05187800
Rb      -7.73980000      -7.75031000      -2.45718000      -0.13103400      -0.13079400       0.02895800
Cs     -18.08773000     -18.09200000     -18.12775000      -0.05276800       0.10199200      -0.06667300
Cs     -13.04112000     -12.81458000     -17.93982000       0.08238200      -0.24334800      -0.15897400
Cs     -18.06133000     -13.03860000     -12.89946000       0.08264100       0.10919900      -0.04582100
Cs     -13.13158000     -18.17681000     -12.92287000       0.28241900       0.08930700       0.04083100
Cs     -12.67384000      -7.69790000     -13.05742000      -0.40180300      -0.16901200       0.45896200
Cs     -12.86881000     -12.94104000      -7.61670000      -0.12679700       0.02770000      -0.38872700
Cs      -7.86463000     -12.99475000     -12.89086000       0.11896600       0.16981700       0.22195200
Cs      -7.95267000      -7.83706000      -7.69197000       0.18987900      -0.00546800      -0.07510500
Au     -15.57494000     -10.38654000     -10.47417000       0.07800700       0.15625100       0.44750800
Au      -5.31361000     -10.41526000     -10.27732000       0.13543800       0.30901600       0.13113600
Au     -10.51421000     -15.40947000     -10.39708000       0.15438800       0.02587100       0.20932900
Au     -10.49416000     -10.28786000      -5.25816000       0.33118000      -0.00174700       0.16818400
Au     -15.48412000     -15.73438000     -15.69385000       0.06898000       0.72818800       0.99435800
Au      -5.18116000      -5.30908000      -5.15734000      -0.32698900       0.22869200       0.04033600
Au     -10.45826000      -5.42375000     -10.28831000       0.18087200       0.30894100      -0.01465900
Au     -10.41223000     -10.26437000     -15.40994000       0.03087700      -0.15556900       0.09835000
20
Lattice="6.298871231 0.0070289 0.358237796 -0.010160611 -6.353516883 -0.129984816 -0.50188844 -0.168541198 -9.661051339" Properties=species:S:1:pos:R:3:forces:R:3 formula=KPbZnCsF6 virial="0.017117793320674035 -0.00024533018388488853 0.007054445385631157 -0.00024533018388488853 0.017658962843949525 -0.005647404625114885 0.007054445385631157 -0.005647404625114885 0.006491629081424648" energy=-84.32430344 stress="-4.4420820448911146e-05 6.366339308400924e-07 -1.8306346266215595e-05 6.366339308400924e-07 -4.582516000223488e-05 1.4655063427573892e-05 -1.8306346266215595e-05 1.4655063427573892e-05 -1.6845833130758913e-05" free_energy=-84.32430344 pbc="T T T"
K        2.86282000      -2.94208000      -7.09256000       0.00017200      -0.00026300      -0.00116500
K        2.92400000      -3.57295000      -2.34024000      -0.00017200       0.00026300       0.00116500
Zn      -0.00508000      -3.17676000      -0.06499000      -0.00000000       0.00000000       0.00000000
Zn       2.89849000      -0.08076000      -4.65141000      -0.00000000       0.00000000       0.00000000
Cs       3.14944000       0.00351000       0.17912000      -0.00000000       0.00000000       0.00000000
Cs      -0.25602000      -3.26103000      -4.89552000      -0.00000000       0.00000000       0.00000000
Pb       5.62722000      -6.08812000      -7.10882000       0.00204800      -0.00125300      -0.00216200
Pb       0.15961000      -0.42691000      -2.32398000      -0.00204800       0.00125300       0.00216200
F        0.79392000      -4.95328000      -0.96404000      -0.00039200      -0.00067600       0.00002000
F        1.87199000      -1.59507000      -3.70912000       0.00038000      -0.00142700      -0.00110400
F        4.99290000      -1.56175000      -8.46876000       0.00039200       0.00067600      -0.00002000
F        3.91483000      -4.91996000      -5.72368000      -0.00038000       0.00142700       0.00110400
F        1.47149000      -2.01900000      -0.79559000       0.00094900      -0.00048900      -0.00044700
F        1.50724000      -5.25428000      -3.90234000      -0.00064500       0.00120600       0.00048500
F        4.31534000      -4.49603000      -8.63721000      -0.00094900       0.00048900       0.00044700
F        4.27958000      -1.26075000      -5.53045000       0.00064500      -0.00120600      -0.00048500
F        1.55503000      -0.49224000      -6.41776000       0.00036900       0.00115500       0.00048000
F        0.51579000      -3.90489000      -7.94318000      -0.00025700       0.00050600       0.00051200
F        4.23179000      -6.02279000      -3.01504000      -0.00036900      -0.00115500      -0.00048000
F        5.27104000      -2.61013000      -1.48962000       0.00025700      -0.00050600      -0.00051200
80
Lattice="-9.71442 -9.71442 0.0 -9.71442 0.0 -9.71442 0.0 -9.71442 -9.71442" Properties=species:S:1:pos:R:3:forces:R:3 formula=KRbCaPbF6 virial="-33.439147857153955 -0.29870605023060415 -1.3002444803923547 -0.29870605023060415 -37.69969723700816 -0.4049388394532958 -1.3002444803923547 -0.4049388394532958 -30.941801859771612" energy=-376.80677326 stress="0.018237889394122908 0.0001629158712038048 0.0007091602668828559 0.0001629158712038048 0.020561615724707497 0.00022085580041937908 0.0007091602668828559 0.00022085580041937908 0.016875823582108783" free_energy=-376.80677326 pbc="T T T"
F       -9.77312000      -9.78604000     -12.20018000      -0.04809400      -0.00480900       0.94577100
F       -9.60392000     -12.15679000     -14.60134000       0.10477600      -1.01756100       0.28998100
F       -9.76585000      -7.39747000     -14.54734000       0.12603900       0.94255400       0.07751700
F       -9.71916000      -9.71303000     -17.01812000      -0.36850000      -0.07038400      -0.84281300
F      -14.59905000     -14.69213000     -17.06446000      -0.06992300       0.26306200      -0.43782500
F      -12.30409000      -9.90684000      -4.91002000       0.67548100       0.00502400       0.20711300
F       -7.19785000      -9.85000000      -4.85321000       0.14409200       0.01279300       0.12635800
F       -9.68473000     -12.12700000      -4.93176000       0.12761600      -0.40723000       0.15856500
F       -9.80382000      -7.14694000      -5.04698000       0.26464300      -0.16817600       0.37976600
F       -9.57188000      -9.80094000      -7.44994000       0.10566400       0.12781800       0.49033500
F       -9.74444000      -9.81215000      -2.37823000      -0.00714700       0.31889000       0.13200800
F      -12.47616000     -14.48082000      -9.82465000       1.29052200      -0.34082100      -0.04027500
F       -7.31281000     -14.64087000      -9.60287000       0.10253200      -0.01291300      -0.43796400
F       -7.08141000      -9.88110000     -14.76224000      -0.52226800      -0.04652600       0.49247400
F       -9.73233000     -17.05837000      -9.52994000      -0.17619600      -0.59014300      -0.46572000
F       -9.73242000     -14.54211000     -12.25888000       0.11138200      -0.19130300       0.56550200
F       -9.65158000     -14.53475000      -7.34951000      -0.11996200      -0.09436800       0.06880800
F      -16.93494000      -9.75032000      -9.63765000      -0.56304400      -0.02875200      -0.35883900
F      -11.97326000      -9.78930000      -9.69048000       0.06118500      -0.03737300      -0.16439200
F      -14.60276000     -12.32691000      -9.76493000      -0.08620100       0.08357500      -0.23580500
F      -14.69498000      -7.27442000      -9.59430000       0.05775100       0.16601600      -0.44055400
F      -14.61622000      -9.64762000     -12.13246000      -0.06143200      -0.10504700      -0.95142300
F      -14.63088000      -9.59619000      -6.98218000       0.16961100      -0.15610900      -0.52949100
F      -16.96058000     -14.59262000     -14.45235000      -0.71120700       0.05878900       0.17875000
F      -11.91845000     -14.51720000     -14.70434000      -0.20086400       0.10615900       0.38478800
F      -14.61399000     -17.16246000     -14.54157000      -0.08620700       0.52576100       0.36472100
F      -14.55506000     -12.07724000     -14.69333000      -0.05007400       0.35226000       0.16894900
F       -9.50600000     -11.83642000      -9.75125000      -0.16383200      -0.94246800      -0.15215100
F      -12.22161000      -9.65943000     -14.36696000      -0.49749900      -0.14952200      -0.13413500
F      -14.56668000     -14.44356000     -12.24605000      -0.20306200      -0.00585200       1.33883500
F       -4.74014000     -12.37569000      -9.72850000       0.05961400       1.25043100       0.05658900
F       -4.80873000      -9.51042000     -12.27793000       0.08851600      -0.06328900       1.73917600
F       -5.06849000      -9.85791000      -7.09211000       0.23118000       0.20467200      -0.58087700
F       -2.40275000      -9.67661000      -9.83529000       0.56023400       0.15018400       0.01351900
F       -7.42511000      -9.81413000      -9.86448000       0.56450900       0.21963200       0.13190000
F       -4.80095000      -4.76474000      -2.28372000      -0.16197600      -0.08576100      -0.33432600
F       -5.05759000      -4.81840000      -7.48834000       0.06878000      -0.29005400       0.31632000
F       -4.96920000      -7.23867000      -9.84657000       0.30165600      -0.37718200       0.16624200
F       -5.01389000      -7.41931000      -4.80686000      -0.09924100      -0.04272000      -0.01561500
F       -4.91877000      -2.36900000      -4.82588000      -0.10066500      -0.62633000       0.37081600
F       -7.09904000      -4.96317000      -9.70610000      -0.68373300       0.00241800      -0.27745100
F       -9.80316000      -7.21388000      -9.59536000       0.06768800      -0.24034700      -0.16169000
F       -9.70705000      -2.29606000      -9.85358000      -0.17924400       0.23828000      -0.14067100
F       -9.57614000      -4.90921000     -12.44693000      -0.03342800       0.07860700       1.30988800
F       -2.45303000      -4.96359000      -4.89124000       0.04915900       0.00584100       0.17118300
F       -7.62501000      -5.03361000      -4.71112000       2.38008400      -0.16031700       0.22616400
F      -12.21735000      -4.92307000      -9.76584000       0.10274000       0.14192800      -0.29533300
F       -9.86348000      -4.76618000      -7.23799000       0.35705500       0.10893000      -0.50075500
K       -7.42679000     -12.08355000     -12.29358000      -0.02917900       0.32477500       0.04687200
K      -16.81248000     -12.27580000     -12.16087000       0.11320300      -0.03820600       0.02986800
K      -16.86183000     -17.13114000     -17.06109000       0.45792900      -0.28080600      -0.00722100
K      -12.21318000     -11.96975000     -16.89362000       0.11775100      -0.40093600       0.33094600
K       -7.26349000      -7.26261000      -7.39671000      -0.12266500       0.24088600      -0.08856700
K      -11.99968000     -17.00009000     -11.96769000      -0.33255600      -0.00725700      -0.36633900
K      -12.09419000      -7.47799000     -12.11072000       0.09158300      -0.17458900      -0.18299900
K      -12.11141000     -12.05206000      -7.40577000      -0.09405600       0.13564900       0.19114100
Ca      -9.79332000      -9.74138000      -0.16941000       0.99570000      -0.25222900       1.19623300
Ca      -9.71309000      -9.69678000      -9.66430000       0.35224000       0.34004100      -0.45983300
Ca      -4.86496000      -4.92580000      -9.76947000      -0.68909800       0.47961000       0.21001900
Ca      -9.60857000     -14.52131000     -14.40398000      -2.77890600       0.09747100      -1.96284200
Ca      -4.97434000      -9.74210000      -4.88220000       0.85082000      -0.07326400       0.61858400
Ca      -4.85883000     -14.47437000      -9.78941000       0.10523600      -1.68880100       1.31658200
Ca      -4.82540000      -9.72105000     -14.37814000       0.02832400      -0.15446100      -2.04469300
Ca     -19.32593000     -14.54646000     -14.49247000      -0.28261600      -0.22169100      -1.96356300
Rb      -2.31954000      -2.47436000      -2.28160000      -0.13599200       0.06759900      -0.29649800
Rb      -7.19113000      -7.07559000     -12.27190000       0.07880400      -0.20406500      -0.03953100
Rb      -7.27666000      -2.56952000      -7.32969000       0.18066300       0.23180700       0.04102400
Rb     -11.98655000     -11.98629000     -12.12262000       0.01110000      -0.02648600      -0.07766900
Rb     -12.01825000      -7.24403000      -7.31464000      -0.20980300       0.15948500       0.16584300
Rb      -7.49438000      -7.06512000      -2.41225000       0.38286300      -0.20933600      -0.00264200
Rb      -7.22715000     -12.03278000      -7.48813000      -0.15513600      -0.13158100      -0.03208400
Rb      -2.35967000      -7.28780000      -7.45150000       0.27809200       0.17593300       0.44186700
Pb      -9.57437000      -9.84411000     -14.53300000      -0.01697400       0.98370500      -0.69445000
Pb      -9.51872000      -9.68789000      -4.88017000      -1.24685700      -0.18479600      -0.50051500
Pb     -14.56559000     -14.59822000     -14.48858000       0.73021700      -0.31809700      -1.64043200
Pb     -14.46428000      -9.87069000      -9.87919000      -0.67443800       0.69712100       1.60156600
Pb      -4.92456000      -4.93993000      -4.66690000       0.51258600       0.58386800      -0.86942500
Pb      -9.65481000     -14.75440000      -9.83437000      -0.08016400       1.21833600       1.33338400
Pb      -9.73801000      -4.79785000      -9.86796000      -0.04783400      -0.43402000       1.14352200
Pb      -4.72720000      -9.68377000      -9.60572000      -1.36954900      -0.04393100      -0.81207800
80
Lattice="-10.090472 -10.090472 0.0 -10.090472 0.0 -10.090472 0.0 -10.090472 -10.090472" Properties=species:S:1:pos:R:3:forces:R:3 formula=Cs2CaVCl6 virial="75.10858885734632 -0.2602429084939928 1.3078193669266172 -0.2602429084939928 70.3531280734579 -0.9103500085565293 1.3078193669266172 -0.9103500085565293 70.25621029012018" energy=-331.48811443 stress="-0.036553179742915894 0.00012665270318242306 -0.0006364778931119452 0.00012665270318242306 -0.03423883440054751 0.0004430410422825713 -0.0006364778931119452 0.0004430410422825713 -0.03419166731608321" magmom=23.9987787 free_energy=-331.48811443 pbc="T T T"
Cl     -10.07765000     -15.02722000     -12.63054000      -0.20389300      -0.09912900       0.95219700
Cl     -10.07667000      -5.16809000      -7.68407000      -0.05407600       0.15928500      -0.08956000
Cl      -9.94340000     -12.68617000     -10.08687000      -0.28626600      -0.21762800      -0.00111400
Cl     -10.06879000     -15.06936000      -7.58904000      -0.04070200       0.01647000      -0.81697200
Cl     -15.13403000     -10.19058000      -7.80378000       0.08507200       0.38370900       0.85849300
Cl     -12.51926000     -15.18365000     -10.22346000       0.57556900       0.16809800       0.12900800
Cl     -12.39445000      -9.95761000     -15.36715000      -0.86611900      -0.21708200       0.31241900
Cl      -7.73374000     -10.13923000     -15.22188000       1.13302100       0.11973900       0.10837000
Cl     -10.11216000     -12.52969000     -15.16751000      -0.03114800       0.18216000      -0.01721800
Cl     -10.12864000      -7.62525000     -15.22486000       0.17263600      -0.04238900       0.20435600
Cl      -9.98336000      -4.98711000     -12.52118000      -0.24456700       0.06978400       0.15635100
Cl      -9.91918000     -10.00892000     -17.65942000      -0.19924600      -0.01046800       0.70643000
Cl     -15.15987000     -10.07165000     -12.48123000       0.17289200      -0.16108800      -0.85491700
Cl     -15.18065000      -7.68700000     -10.04234000       0.25170100       0.26649900      -0.04608900
Cl     -15.11290000     -12.49312000      -9.90544000       0.04597500       0.06508500      -0.48080000
Cl     -12.51616000      -9.99168000      -4.97590000       0.69484100      -0.06875700      -0.11278700
Cl      -7.70172000     -10.08069000      -5.11970000       0.50903200       0.08888100       0.33708800
Cl     -10.09431000     -12.33109000      -5.01419000      -0.08946500      -2.33923400       0.07372100
Cl     -10.10264000      -7.56389000      -4.80679000      -0.10758400      -1.30051200      -0.21552000
Cl      -9.94741000     -10.10372000      -7.39140000      -0.38541800       0.14059400      -0.84569900
Cl     -10.18522000     -10.00570000      -2.58434000       0.11928200      -0.08230500      -0.35440500
Cl     -10.13949000     -10.16636000     -12.73590000       0.00427200       0.06328600       0.52344800
Cl     -12.46408000     -10.00892000     -10.11863000      -2.07361400      -0.21266200       0.17358600
Cl     -10.24811000      -2.64011000      -9.97665000       0.30992000       0.22694700      -0.15866200
Cl      -7.70086000      -5.21389000     -10.23984000       0.78129600       0.20304400       0.32997000
Cl      -7.56213000      -5.21610000      -4.80426000       0.92723300       0.36844600      -0.40134200
Cl      -2.51551000      -5.01996000      -5.15247000      -0.94427100       0.18763800       0.22947600
Cl      -4.95410000      -7.48315000      -5.05321000      -0.14847000       0.38254900       0.06687800
Cl      -5.02627000      -2.55018000      -5.11503000      -0.07193300       0.71366400      -0.02362000
Cl      -5.04234000      -5.08795000      -7.45048000      -0.25141900       0.16695100       0.02746500
Cl      -4.98887000      -5.02222000      -2.73649000       0.19117600       0.01985900       1.82687500
Cl     -15.31132000     -15.01007000     -12.62222000       0.23806700      -0.14144600      -1.27727900
Cl     -15.30469000     -15.13873000     -17.56111000       0.21856900       0.00669700      -0.22933800
Cl     -15.10877000     -12.67927000     -15.16008000      -0.01393200      -0.35061000       0.05405700
Cl     -10.21926000      -7.44978000     -10.14844000       0.10671100       0.34036900       0.05546200
Cl     -10.14235000     -17.55023000      -9.94466000       0.07414900      -0.11097300      -0.33213900
Cl      -2.58889000     -10.16208000      -9.98150000       0.43688900      -0.05724200      -0.16246400
Cl      -5.09323000     -12.66541000      -9.98867000       0.15219700       1.37492300      -0.31955000
Cl      -4.96463000      -7.74519000     -10.12473000      -0.16824300       0.35934800       0.06443800
Cl      -5.35913000     -10.05033000     -12.58433000       0.78654200      -0.26620700       0.17539600
Cl      -5.16435000     -10.18566000      -7.61960000       0.23939800       0.17173200      -0.79738200
Cl     -15.27777000     -17.51551000     -15.15644000       0.02245600      -0.26071000       0.02822000
Cl     -12.94437000     -15.15257000     -15.21621000       4.00685300      -0.03310200       0.31670900
Cl     -17.61438000     -15.05067000     -15.20042000       0.86176200      -0.00749900       0.10681000
Cl      -7.64140000     -15.02652000     -10.18125000       0.09790200      -0.26921100       0.00028500
Cl     -12.53010000      -4.92810000     -10.03233000       0.38037000      -0.25145500      -0.08475900
Cl      -7.50358000     -10.07650000     -10.13377000       1.05658600      -0.02640400       0.13572500
Cl     -17.54300000     -10.10540000     -10.18201000       0.43929200       0.01235600       0.00025900
Ca      -5.09142000     -10.10645000      -5.04526000       0.49715700       0.45288300      -0.08428900
Ca     -20.10275000     -10.11538000     -10.11734000      -0.38924900       0.16598300       0.06574500
Ca     -15.08705000     -15.15890000     -20.08206000      -0.11969500      -0.32559400      -0.90876900
Ca     -15.06323000     -15.10355000     -10.14341000      -0.56905000      -0.19429900       0.87169700
Ca     -14.98464000     -10.04938000      -5.04064000      -1.32245600       0.08603100      -0.71647600
Ca     -20.13425000     -15.14954000     -15.12569000      -0.18166200       0.37383100       0.33181300
Ca     -10.08828000      -5.11616000      -5.11777000      -0.52924700       1.01007200       0.25969500
Ca     -10.02158000     -10.02134000     -10.15614000       0.54578400      -0.40978100       0.52290800
V      -15.09525000     -10.04199000     -10.18346000       0.32194500      -0.64589400       0.98906400
V      -10.03202000     -15.17432000     -10.04789000      -0.35505800       0.66696100      -0.49702400
V      -10.04688000      -9.98888000     -15.01196000      -0.26208000      -0.56593400      -1.67026300
V      -15.04364000     -15.13926000     -15.27159000      -4.19574300       0.42286400       1.22833000
V      -10.04026000     -10.13972000      -5.06238000      -0.51472100       2.31511200       0.74116900
V       -5.10284000      -4.81608000      -4.96137000       0.29454200      -1.97591000      -1.69837700
V      -10.01226000      -5.00455000     -10.08461000      -0.92283700      -0.44462800      -0.28583000
V       -4.87731000     -10.11484000     -10.22602000      -1.60891000      -0.57159600       0.91832200
Cs     -17.64598000     -17.50953000     -17.85136000      -0.22629500      -0.31459100       0.39559700
Cs      -7.75601000      -7.54396000      -7.52320000       0.45462400      -0.05100200      -0.06559300
Cs      -2.52779000      -2.46014000      -2.59330000       0.04218700      -0.19383800       0.17538900
Cs      -7.48393000     -12.56988000     -12.71905000      -0.32764900      -0.21802500       0.13797300
Cs      -2.62546000      -7.55076000      -7.66712000       0.15838600       0.01091400       0.22735800
Cs     -12.71446000      -7.71311000     -12.52305000       0.25650100       0.41623200      -0.33137300
Cs     -12.83780000     -17.67967000     -12.59060000       0.40466100       0.14874400      -0.02712300
Cs     -12.70675000      -7.51864000      -7.34708000       0.20978700      -0.20104600      -0.48375900
Cs     -17.62563000     -12.50642000     -12.64141000      -0.17139400      -0.21214800       0.02162200
Cs     -12.61290000     -12.66731000     -17.53365000       0.02572300       0.22376400      -0.20070100
Cs      -7.52967000      -7.73954000     -12.55502000      -0.42120800       0.54613500      -0.23480100
Cs     -12.69187000     -12.53006000     -12.69890000       0.23765300      -0.15423600       0.14642400
Cs     -12.60575000     -12.62466000      -7.54265000       0.17149500       0.01931500      -0.15534100
Cs      -7.34260000      -7.58669000      -2.46052000      -0.49559900       0.11557400      -0.12472200
Cs      -7.55561000     -12.59711000      -7.56197000      -0.12875800       0.00818500      -0.06284900
Cs      -7.71018000      -2.44181000      -7.67258000       0.20987200      -0.23607900       0.18231000
80