90
Lattice="-14.303575 0.044637 -4.711252 0.0 -9.81761 0.228226 0.0 0.0 8.813462" Properties=species:S:1:pos:R:3:forces:R:3:magmoms:R:1 config_type=new_32223 virial="4.764115682180636 -1.8940946262205813 0.21118795493519285 -1.8940946262205813 -8.18341545073522 0.7784808710817487 0.21118795493519285 0.7784808710817487 -8.672085483625972" energy=-453.63749012 stress="-0.003849332164715108 0.0015303993131391973 -0.00017063661799252241 0.0015303993131391973 0.006612073764196073 -0.0006290005651791371 -0.00017063661799252241 -0.0006290005651791371 0.007006911631499448" magmom=8.63e-05 free_energy=-453.63749012 pbc="T T T"
H       -9.80805000      -7.68902000      -2.72304000      -0.30849500      -0.09839100       0.05959700       0.00000000
H       -4.61772000      -2.25494000       6.92644000      -0.28321200       0.72542700       0.36737600       0.00000000
H       -4.27012000      -2.54716000       2.19229000       0.49097500       0.54737500       0.18414900       0.00000000
H       -8.90117000      -5.64855000       1.89101000       0.43708800       0.27762400       0.29506200       0.00000000
H      -10.20197000      -8.95567000       5.07723000       0.16637500      -0.26925200       0.00727700       0.00000000
H       -4.75215000      -0.81497000      -0.89326000       0.14140400      -0.21018900       0.01274500       0.00000000
H       -4.56912000      -3.74788000       3.27579000      -0.15283200      -0.12372900       0.27438200       0.00000000
H       -9.75575000      -7.02016000       1.73951000      -0.44623600      -0.28581900       0.15153600       0.00000000
H       -9.13039000      -9.10475000      -2.44401000       1.48610400      -0.97673500       0.52777900       0.00000000
H       -5.72973000      -1.00704000       6.58228000       0.26241400      -0.04823700      -0.03976600       0.00000000
H       -5.15233000      -3.76238000       1.69810000       0.39923300      -0.72518100      -0.07781800       0.00000000
H      -10.01413000      -5.73937000       0.67073000       0.13172300      -0.09296200       0.01451500       0.00000000
H      -11.00012000      -8.43906000      -0.92447000       0.04428100       0.20409000      -0.09335200       0.00000000
H       -3.94132000      -1.06290000       5.06780000       0.41206800       0.61923300       0.76889000       0.00000000
H       -2.94947000      -4.08145000       0.81939000       0.27516600      -0.21494600       1.31262900       0.00000000
H      -10.95973000      -6.07286000       3.38784000      -0.05404100      -0.04899700       0.49896000       0.00000000
H      -12.28252000      -7.56775000      -2.94076000       0.33134800      -0.21567900      -0.49087200       0.00000000
H       -2.41619000      -2.20846000       6.52818000       0.02080100      -0.81544800       0.18741600       0.00000000
H       -1.92048000      -2.36593000       2.29946000      -0.02860800      -0.00601800       0.33209000       0.00000000
H      -12.18200000      -6.43181000       1.26319000      -0.09192100      -0.50004800      -0.57601900       0.00000000
H      -12.46874000      -9.34115000      -3.46420000      -0.34365400       0.78617900       0.36070800       0.00000000
H       -2.36302000      -0.84538000       7.65120000       0.44985100      -0.11157300       0.10193000      -0.00000000
H       -1.68992000      -3.52964000       3.68620000      -0.29088700       0.05707100      -0.55763500      -0.00000000
H      -12.16877000      -4.68813000       0.97649000      -0.23611000       0.00224300      -0.02928800       0.00000000
H      -11.61068000      -1.31626000      -2.50456000       0.73296600       0.50201100       0.55112400      -0.00000000
H       -4.49074000      -8.55899000       5.45284000      -0.54668800      -0.01031500       0.12277000       0.00000000
H       -4.05506000      -6.17206000       2.20045000       0.62605900       0.27534900      -0.14274100       0.00000000
H       -9.80313000      -3.93432000       3.65156000       1.52527500       0.24238900       1.16244000       0.00000000
H      -11.70939000      -0.92533000      -0.73289000       0.82537900       0.66073700      -1.48656600       0.00000000
H       -3.84795000      -8.34314000       7.11814000      -0.14797700      -0.22333500       0.03430500       0.00000000
H       -2.57748000      -5.93622000       3.23428000      -0.55956700       0.05884700      -0.00032300       0.00000000
H      -10.28616000      -3.40966000       2.02336000       0.26522600       0.18363400      -0.00441300       0.00000000
H      -10.09596000      -1.06482000      -1.48719000      -0.24019200       0.16017100      -0.23370000       0.00000000
H       -2.79446000      -8.56353000       5.71210000      -0.44552100      -0.21578700       0.32253900       0.00000000
H       -2.35025000      -6.21458000       1.59035000       0.36030500      -0.72735500      -1.09553100       0.00000000
H      -11.42467000      -3.41941000       3.34716000      -0.13146400      -0.23237000       0.06464600      -0.00000000
H      -13.36546000      -7.91203000      -0.87143000      -0.25355500       0.03892100      -0.06197400       0.00000000
H       -0.96654000      -1.22668000       4.91684000      -0.23711300       0.13910500       0.17047600      -0.00000000
H       -0.37394000      -3.65414000       0.89400000      -0.06817400       0.00983000      -0.17582800       0.00000000
H      -13.18423000      -6.10597000       3.57290000      -0.29753300       0.53405300      -1.23387700      -0.00000000
H      -13.96469000      -9.48212000      -1.31381000      -0.01370200      -0.19709500      -0.20861300       0.00000000
H       -0.95627000      -9.46279000       5.87780000      -0.23233500       0.02984600       0.30210100       0.00000000
H       -0.41904000      -4.98431000       2.11928000       0.44059300       0.52359300      -0.41453100       0.00000000
H      -13.45260000      -4.43239000       3.11487000      -0.64958100      -0.34786900      -0.44272900       0.00000000
H       -0.21269000      -6.82975000       2.14366000      -0.28177600      -0.04898600      -0.38964600       0.00000000
H      -13.20978000      -0.74959000       1.52002000       1.07311600       0.29086800      -0.53092500       0.00000000
H      -12.67915000      -3.32294000      -2.51028000       0.02580000       0.34451400       0.37406000       0.00000000
H       -1.22878000      -6.11226000       7.10251000       0.16984600       0.14464300       0.63047000       0.00000000
H       -1.43991000      -7.97265000       2.80859000       0.49576100       0.06801400      -0.55597300       0.00000000
H      -14.14940000      -0.59049000       2.98411000       0.17139800       0.00271700       0.12409100       0.00000000
H      -13.48837000      -3.74253000      -0.99173000      -0.03928800       0.75477300      -0.15459600       0.00000000
H       -0.56958000      -5.17851000       5.86705000       0.21301800      -0.46344800      -0.62374600       0.00000000
H       -0.64074000      -8.33596000       1.21568000      -0.12487000       0.13450300       0.00877000      -0.00000000
H      -14.00396000      -2.19326000       2.21003000      -0.23896100       0.83026700      -0.35637800       0.00000000
H      -13.83159000      -2.12448000      -1.82214000       0.03110300       1.00322200       0.43497300       0.00000000
H       -0.14760000      -7.02048000       6.10460000       0.29680500       1.50917700       0.14766400       0.00000000
Pb      -7.11498000      -4.95678000       6.44054000      -0.12222400      -0.44745700       0.07188800       0.00000000
Pb      -7.11639000      -0.09700000       2.19555000      -0.26022100       0.27264800      -0.09413600       0.00000000
C      -11.15204000      -9.02828000      -1.83988000      -0.01450200      -0.40078200       0.23922000       0.00000000
C       -3.68333000      -0.58283000       6.07223000      -0.65561400      -0.96753100      -1.40036200       0.00000000
C       -2.95353000      -4.24022000       1.96518000      -0.81535000       1.05955900      -1.93850300       0.00000000
C      -10.89952000      -5.40184000       2.53384000      -0.03634300       0.77029200       0.41503300       0.00000000
C      -12.40698000      -8.61206000      -2.60338000       0.15286700      -0.24389700      -0.08531200      -0.00000000
C       -2.36093000      -1.13604000       6.58383000       0.29423400       1.04752400       0.42167100       0.00000000
C       -1.75363000      -3.42308000       2.57221000      -1.31814500      -0.45470100      -0.44503200       0.00000000
C      -12.18175000      -5.46664000       1.75435000       0.23283400      -0.39639800       0.09081100      -0.00000000
C      -11.11309000      -0.68327000      -1.70865000      -1.29552100      -1.49854800       1.07772100      -0.00000000
C       -3.75549000      -8.90504000       6.17738000       1.00371200       0.76732600      -0.48823400      -0.00000000
C       -3.03098000      -5.72858000       2.24102000      -0.17789700       0.38882800       1.54563900      -0.00000000
C      -10.56150000      -3.95416000       2.93292000      -1.14611100      -0.55078500      -1.24243000      -0.00000000
C      -13.66040000      -8.51995000      -1.75025000       0.19154600      -0.39485800       0.54201700       0.00000000
C       -1.04675000      -0.71355000       5.90104000       0.45713800      -0.78963600      -0.42073700       0.00000000
C       -0.43735000      -3.87816000       1.96148000      -0.05514600      -0.43939700       1.30209600       0.00000000
C      -13.39554000      -5.44531000       2.64415000       0.56489500      -0.46268700       1.94125400       0.00000000
C       -0.49745000      -7.89022000       2.20985000      -0.16292600      -0.13278100       0.96895200      -0.00000000
C      -14.09326000      -1.08449000       2.00380000      -1.51484500      -0.70079600       0.76193100      -0.00000000
C      -13.60772000      -3.16014000      -1.93344000       0.26598700      -2.35963800      -1.09806700      -0.00000000
C       -0.27659000      -5.97606000       6.56912000      -1.42125400      -0.62056700      -0.21591500      -0.00000000
I       -7.11320000      -8.05348000      -0.90523000       0.07504800       0.07973900       0.30018600      -0.00000000
I       -7.30371000      -2.01752000       4.81243000      -0.16409800       0.07297000      -0.35423100      -0.00000000
I       -7.16159000      -3.10673000       0.13243000      -0.04626300       0.20470100       0.49187500      -0.00000000
I       -6.94167000      -6.91250000       3.75974000      -0.04348700      -0.11789700      -0.15941300      -0.00000000
I      -10.37035000      -5.31857000      -1.72427000       0.05900600       0.07529700      -0.29954200      -0.00000000
I       -3.99406000      -4.57832000       6.56399000       0.03007900      -0.19267200      -0.15637200      -0.00000000
I       -4.02307000      -0.02075000       2.10435000       0.12450900      -0.09761400      -0.23248800      -0.00000000
I      -10.37865000      -9.35620000       2.32811000       0.02438100      -0.10003400       0.18473500      -0.00000000
N       -9.99831000      -8.72415000      -2.74162000      -1.00682700       1.60510500      -0.89030000      -0.00000000
N       -4.77320000      -1.19019000       6.95683000       0.31417800       0.02873700      -0.16420400      -0.00000000
N       -4.31007000      -3.57649000       2.29920000       0.07393300       0.17262500       0.39895600      -0.00000000
N       -9.84085000      -5.98468000       1.68090000       0.83524300       0.37266400      -0.99933700      -0.00000000
90
Lattice="-14.483835 -0.504227 -5.410379 0.0 -9.468735 -0.026761 0.0 0.0 9.113186" Properties=species:S:1:pos:R:3:forces:R:3:magmoms:R:1 config_type=new_32223 virial="-2.683717140305569 -0.9186688422143334 3.3251869598048267 -0.9186688422143334 0.6939531464959378 -0.7309130161912811 3.3251869598048267 -0.7309130161912811 -9.008636707116695" energy=-453.36418723 stress="0.0021472913506141206 0.0007350438052278937 -0.002660543129053753 0.0007350438052278937 -0.0005552446518385746 0.0005848169220770095 -0.002660543129053753 0.0005848169220770095 0.0072079756064806514" magmom=8.11e-05 free_energy=-453.36418723 pbc="T T T"
H      -10.04505000      -7.58224000      -3.07042000       0.41799300      -0.84225800      -0.23589400       0.00000000
H       -4.70822000      -1.69949000      -1.50890000       0.04372400      -0.95561400       0.42262300       0.00000000
H       -4.95449000      -3.15951000       2.82708000       0.28737600      -0.21787400      -0.74162700       0.00000000
H       -9.17093000      -5.61342000       1.31716000       0.37121400      -0.08206000      -0.05916900       0.00000000
H       -9.76644000      -8.80925000       4.88924000       0.06855700      -0.11553000       0.03233400       0.00000000
H       -5.45767000      -0.19752000      -1.54297000       0.48195200      -0.61290500      -0.65402500       0.00000000
H       -4.45514000      -4.14718000       3.95008000       0.41475700      -0.72700000      -0.01778800       0.00000000
H      -10.02000000      -7.12131000       1.15341000       0.35183700       0.86535100      -0.10733000       0.00000000
H       -8.90520000      -8.80649000      -2.74813000      -0.05158700      -0.11737400      -0.04269900       0.00000000
H       -5.67836000      -1.31085000       6.30544000       0.01251300      -0.13782400      -0.06976000       0.00000000
H       -5.55742000      -4.69015000       2.86899000      -0.20194600      -0.27449800      -0.23846500       0.00000000
H      -10.09622000      -5.92382000      -0.05845000       0.07968300       0.25539400      -0.77202300      -0.00000000
H      -10.88509000      -9.07942000      -1.50953000       0.26869400      -0.19790300       0.97166700      -0.00000000
H       -3.59322000      -1.08897000       5.40717000       0.09706100      -0.16415200       0.06017600       0.00000000
H       -3.60661000      -3.94100000       1.15679000      -0.07500600      -0.29810700      -0.04230500       0.00000000
H      -11.04899000      -5.78449000       2.72628000      -0.33455700       0.38372400      -0.18592500       0.00000000
H      -12.26329000      -7.72616000      -2.81961000       0.02396600      -0.35481400      -0.33407000       0.00000000
H       -2.70946000      -1.36011000       7.93040000       0.18626600       0.23164000      -0.47279500       0.00000000
H       -2.44138000      -4.59154000       3.86132000       0.21780000       0.23942300      -1.12104100       0.00000000
H      -12.37271000      -7.29275000       1.11236000       0.45470800      -1.01973700      -0.06340000      -0.00000000
H      -12.35968000      -8.98279000      -4.10206000      -0.52784300      -0.15376100       0.41910000       0.00000000
H       -2.48338000      -9.13094000       7.84634000      -0.10532400       0.76919000       0.23458400       0.00000000
H       -1.59334000      -5.40562000       2.60110000      -0.21126900       0.01973200      -0.52924900      -0.00000000
H      -12.72151000      -5.93307000       0.06060000      -0.04153000       0.00543600       0.91484800       0.00000000
H      -11.19850000      -1.71886000      -3.68705000      -0.19544600       0.17159300       0.21835400       0.00000000
H       -4.27822000      -7.85370000       6.63972000       0.19467200      -0.18399000      -1.15643800      -0.00000000
H       -4.75793000      -6.27868000       1.01440000       0.39456600       0.48268100       0.41870500       0.00000000
H      -10.40206000      -3.52700000       1.84715000       0.19614200       0.44390800      -0.15705200       0.00000000
H      -11.32978000      -1.89400000      -1.90061000      -0.04583800      -0.43617400       0.14468700       0.00000000
H       -2.96044000      -8.12737000       5.39719000      -0.38777000       0.14397300       0.25591600      -0.00000000
H       -3.74407000      -6.74840000       2.34064000       0.34269600      -0.98536300       1.00074200       0.00000000
H      -11.34985000      -3.83539000       0.33910000       0.24666100       0.29118000      -0.64302100       0.00000000
H       -9.75165000      -1.62635000      -2.72775000      -0.33570000      -0.19777900       0.40680200       0.00000000
H       -4.58221000      -8.41209000       4.88795000      -0.99860400       0.16658400      -0.54429000       0.00000000
H       -3.05954000      -6.31796000       0.75504000       0.36386000      -0.01164800       0.19719100       0.00000000
H      -12.16056000      -3.48226000       1.82282000      -0.49735300       0.10007500       0.46555600      -0.00000000
H      -13.32465000      -9.15052000      -1.04452000       0.29304700       0.59221900       0.01996800       0.00000000
H       -1.17428000      -1.66065000       5.85450000      -0.38272400       1.08180600       0.88332900       0.00000000
H       -1.68724000      -2.42588000       3.10125000       0.08380700      -0.01767700      -0.21554200       0.00000000
H      -13.52944000      -6.54365000       3.05692000      -0.26541600       0.63866600      -1.08749900       0.00000000
H      -13.51345000      -0.93683000      -2.10725000      -0.18814000      -1.09562600      -0.31607800       0.00000000
H       -1.03674000      -9.35145000       5.78011000       0.03130600       0.18704800      -0.09493000       0.00000000
H       -1.65263000      -2.95127000       1.39073000       0.05637900       0.34740300      -0.03578700       0.00000000
H      -13.96857000      -4.99833000       2.21588000      -0.09381900       0.19299100       0.21231000       0.00000000
H       -0.94067000      -7.79641000       3.56046000       0.06964500      -0.06981500      -0.27575800       0.00000000
H      -13.59560000      -1.37407000       1.69375000      -0.67851700       0.33167400       0.73712200       0.00000000
H      -13.78983000      -3.24705000      -2.67086000       0.59120300       0.79998300       0.79284800       0.00000000
H       -1.29180000      -6.21736000       7.71671000      -0.70157700      -0.54843100       0.47484400       0.00000000
H       -0.89357000      -8.94698000       2.17110000       0.04060300       0.09399000       0.39042200       0.00000000
H       -0.24266000      -9.26680000       8.12718000       0.64922900      -0.18574800       0.00189300       0.00000000
H      -13.91789000      -4.48365000      -3.75114000      -0.04156100      -0.72454800      -1.10677600       0.00000000
H       -1.02989000      -5.50606000       6.18909000      -0.18401600      -0.18836000      -0.69467000       0.00000000
H       -0.06127000      -7.42961000       2.01230000      -0.18102600       0.05500000       0.47890900       0.00000000
H       -0.31656000      -1.58199000       8.31099000       0.23651600       0.44111500      -0.47656800       0.00000000
H      -14.31826000      -4.87959000      -2.11202000       0.58393800      -0.21092600       0.70171100       0.00000000
H       -0.36198000      -7.23456000       6.46579000      -0.60867800       1.18443700       0.46926400       0.00000000
Pb      -7.57618000      -5.04023000       6.06079000       0.75054400       0.26789900       0.36165200       0.00000000
Pb      -6.93658000      -0.47115000       1.74943000      -0.18395700       0.24438600      -0.16246600       0.00000000
C      -10.99113000      -9.39415000      -2.53437000       1.12398500       1.40253800      -0.22515900       0.00000000
C       -3.73138000      -0.42274000       6.27098000      -0.53812200      -0.05471400      -0.31983100      -0.00000000
C       -3.58634000      -4.67050000       1.98712000       0.86062300       1.60802100       0.55964300       0.00000000
C      -11.26101000      -5.48440000       1.67762000      -0.62730100      -0.61809000      -0.64402600       0.00000000
C      -12.27905000      -8.82793000      -3.00154000      -0.97625300       0.95729900       0.44996400       0.00000000
C       -2.54914000      -0.51212000       7.21004000      -0.41568800      -1.48005200       0.28207300      -0.00000000
C       -2.23063000      -4.51585000       2.73259000      -0.27217400      -0.00964700       1.45399500       0.00000000
C      -12.55357000      -6.23776000       1.14134000       0.52272600       1.19295900      -0.35853100       0.00000000
C      -10.83103000      -1.36483000      -2.70533000       1.03644800      -1.44507900      -0.67186900      -0.00000000
C       -3.95784000      -8.47216000       5.74998000       1.22797600       0.12929900       1.35099500      -0.00000000
C       -3.78396000      -6.06452000       1.53488000      -1.60214600      -0.26081100      -1.67072700      -0.00000000
C      -11.29425000      -3.97139000       1.40826000       0.39309200      -1.15046800       0.59903300      -0.00000000
C      -13.47295000      -9.33707000      -2.11501000       0.02136100       0.68306500      -1.14440300      -0.00000000
C       -1.23411000      -0.70508000       6.50332000       1.09825100      -1.35852800      -0.20356100       0.00000000
C       -1.40661000      -3.24404000       2.41832000       0.31871400      -0.95083200      -0.08660800      -0.00000000
C      -13.78776000      -6.06332000       2.04164000       0.60473500      -0.57990600       0.82425100      -0.00000000
C       -0.30617000      -8.21495000       2.75922000       0.14371300      -0.15240300      -0.36500200      -0.00000000
C       -0.12237000      -0.74269000       7.59055000      -0.08309200      -0.38241700      -0.63869900      -0.00000000
C      -14.38375000      -4.11232000      -2.86523000      -1.34445400       0.59094900       0.02139900      -0.00000000
C       -0.59530000      -6.20184000       6.90008000       1.57586500      -0.33056400      -0.26391000      -0.00000000
I       -6.71088000      -7.85211000      -0.80560000      -0.63060800       0.28291200       0.04404800      -0.00000000
I       -7.07939000      -2.31741000       4.34223000      -0.39103700       0.08334200       0.44065900      -0.00000000
I       -7.16508000      -2.99630000       0.04025000      -0.04620200      -0.06972300      -0.02114500      -0.00000000
I       -7.23201000      -6.68308000       3.58798000      -0.16712000      -0.18064800      -0.18207300      -0.00000000
I      -10.69954000      -5.25275000      -2.65836000      -0.01218600       0.00439500       0.03387500      -0.00000000
I       -4.18845000      -4.73751000       6.43173000      -0.25188500       0.23998200      -0.01254800      -0.00000000
I       -3.82847000      -0.32283000       1.90117000      -0.33537800      -0.30542900       0.01456900      -0.00000000
I      -10.43827000      -9.50397000       2.06624000       0.21574600       0.18522100       0.03354700      -0.00000000
N       -9.81739000      -8.63345000      -3.20092000      -0.90382100       1.06657000      -0.02516800      -0.00000000
N       -4.97004000      -0.96027000       6.97405000      -0.29639800       1.55103900       0.06984500      -0.00000000
N       -4.67864000      -4.16008000       2.92224000      -0.32355800       0.59234900       0.44357900      -0.00000000
N      -10.01449000      -6.05707000       0.94667000      -1.30952300      -1.14163600       1.17867100      -0.00000000
90
Lattice="-14.97546 0.115501 -4.644905 0.0 -9.574501 0.11068 0.0 0.0 8.605699" Properties=species:S:1:pos:R:3:forces:R:3:magmoms:R:1 config_type=new_32223 virial="-8.048284750582466 -2.219694378225609 0.12438599914898377 -2.219694378225609 -2.034628712969583 -3.808548191638416 0.12438599914898377 -3.808548191638416 -6.838511343962507" energy=-453.19859025 stress="0.006522601730876537 0.001798915277243821 -0.00010080661389214049 0.001798915277243821 0.0016489318129488464 0.0030865760589682922 -0.00010080661389214049 0.0030865760589682922 0.005542160511346291" magmom=4.28e-05 free_energy=-453.19859025 pbc="T T T"
H      -10.00585000      -7.68748000      -2.84233000      -0.79643700      -0.38680000      -0.80898200       0.00000000
H       -4.73821000      -1.82836000       7.05357000      -0.16160300      -0.01367900       0.16426800       0.00000000
H       -4.26768000      -2.73297000       2.81172000      -0.03251000       0.46196900      -0.45854800       0.00000000
H       -9.91657000      -6.29983000       1.47062000      -0.06397100       0.41380300      -0.13056400       0.00000000
H      -10.40194000      -8.82731000       4.47771000      -0.11605900       0.32275000       0.65013300      -0.00000000
H       -4.49801000      -0.36656000      -0.75828000      -0.19231200       0.22740500       0.58360900       0.00000000
H       -4.29851000      -4.05410000       3.80526000       0.39852700      -0.62058000       0.88007200       0.00000000
H      -10.08981000      -5.00356000       0.41020000      -0.35269900       0.22703200      -0.68744500       0.00000000
H       -9.32443000      -9.08359000       5.72851000      -0.06562800      -1.02206600       0.19584800       0.00000000
H       -5.40864000      -0.47431000       6.34781000       0.01263500      -0.07024400       0.55268400       0.00000000
H       -5.42482000      -3.93243000       2.64123000      -0.75064800       0.36102700       0.02092200       0.00000000
H       -9.19054000      -4.81642000       1.81455000      -0.63153000      -0.47886400      -0.53250100       0.00000000
H      -11.24066000      -8.60340000      -1.22128000      -0.15095700       0.24146200      -0.29805700       0.00000000
H       -3.49890000      -1.12588000       5.17708000      -0.50020700      -0.73855700      -1.68123000       0.00000000
H       -3.77158000      -3.89440000       0.84167000      -0.06688800      -0.28779700       0.18915800       0.00000000
H      -11.01668000      -5.13857000       3.26470000      -0.18231900       0.10781100      -0.18558000      -0.00000000
H      -12.58063000      -7.77682000      -3.37322000      -0.00698000       0.42446800      -0.38595300       0.00000000
H       -2.34269000      -2.19157000       7.26289000       0.00536600      -0.64175300      -0.17001200       0.00000000
H       -2.18378000      -5.02533000       3.21740000      -0.28268900      -0.58386200       0.90973200       0.00000000
H      -12.21882000      -6.63110000       1.37633000      -0.46806200       0.26756000       0.82157400       0.00000000
H      -13.03624000       0.09770000      -3.67967000       0.07206900      -0.10520500      -0.21610200       0.00000000
H       -1.83876000      -0.59496000       7.63227000      -0.03247300       0.37629900       0.36991400       0.00000000
H       -1.67027000      -5.23150000       1.62112000       0.40829000      -0.87605100      -0.84443100       0.00000000
H      -12.68880000      -5.18058000       0.60698000      -0.16780500       0.01070500       1.14870700       0.00000000
H      -11.50419000      -1.69638000      -2.88103000       0.05433900       0.54127200       0.52848700      -0.00000000
H       -2.92375000      -8.20714000       7.03219000      -0.09774800      -0.43513600      -1.15167300      -0.00000000
H       -5.07867000      -6.08885000       1.02336000       0.84411900       0.28810400       0.69023000       0.00000000
H      -10.73378000      -2.67683000       2.61170000      -0.68155100      -0.61897100      -0.11364500       0.00000000
H      -11.94994000      -1.28338000      -1.19277000      -1.06041000      -0.36621000       0.75301900       0.00000000
H       -2.31891000      -8.47815000       5.31838000      -0.24312300       0.25811300      -0.04123500       0.00000000
H       -4.11340000      -6.55619000       2.48766000      -0.03075800       0.47851600      -0.36178300       0.00000000
H      -11.34758000      -3.06834000       1.06575000      -0.08019100       0.51523100      -2.04909900       0.00000000
H      -10.30440000      -1.27122000      -1.59966000      -0.17030500       0.08664500      -0.31478800       0.00000000
H       -4.10937000      -8.24617000       5.68216000       0.35322300       0.29085200      -0.37496200       0.00000000
H       -3.40674000      -6.49774000       0.91482000       1.14140600      -0.25919300      -0.85964400       0.00000000
H      -12.48519000      -3.03304000       2.38298000      -0.49973900       0.19389000       0.25348600       0.00000000
H      -13.56161000      -7.56579000      -1.31002000       0.10699400       0.49407000       0.66180000       0.00000000
H       -0.91762000      -2.20570000       5.20229000       0.12880300       0.89356800       0.60365700       0.00000000
H       -1.75948000      -2.63231000       3.04564000      -0.31737600       1.01988400       0.56122100       0.00000000
H      -13.64567000      -5.94937000       3.55610000       0.01195300      -0.08036900      -1.05603800       0.00000000
H      -13.94808000      -9.26132000      -1.08006000       0.01594900      -0.42364300       0.17962900       0.00000000
H       -0.77826000      -0.42017000       5.22347000       0.01085100      -0.33288400       0.45223100       0.00000000
H       -1.32118000      -2.87473000       1.33734000      -0.08695100       0.60939900       0.03456000      -0.00000000
H      -13.89717000      -4.41461000       2.85018000      -0.01009400      -0.16205100      -0.25747700       0.00000000
H       -1.00392000      -8.04619000       2.85753000       0.16424500       0.01901500      -0.48632700       0.00000000
H      -14.26589000      -2.33497000       2.31703000       0.04722000      -0.52894800      -0.09537100       0.00000000
H      -14.91876000      -4.12722000      -1.02911000       0.93315200       0.02694700      -0.16569600       0.00000000
H       -0.99778000      -6.06188000       7.35557000       0.84237600       0.03027100      -0.88285800       0.00000000
H       -0.55312000      -9.23928000       1.58371000      -0.10297000       0.20261200       0.28407600       0.00000000
H      -13.69651000      -0.76415000       1.70909000       0.07895200      -0.17450900      -0.05005900       0.00000000